# LAMMPS input data file     0
8  atoms
7 bonds
6 angles
5 dihedrals

4     atom types
1     bond types
1     angle types
1     dihedral types
0    10 xlo xhi
0    10 ylo yhi
0    10 zlo zhi

Masses

1          14.02
2          14.02
3          14.02
4          14.02

Atoms

1    1    35   6    8    2
2    1    8   6    7    3
3    1    3   6    8    4
4    1    8   6    9    5
5    1    12   7    9    4
6    1    8   7    10    3
7    1    3   8    10    4
8    1    8   9    10    5

Bonds

1    1   1    2
2    1   2    3
3    1   3    4
4    1   4    5
5    1   5    6
6    1   6    7
7    1   7    8

Angles

1    1   1    2    3
2    1   2    3    4
3    1   3    4    5
4    1   4    5    6
5    1   5    6    7
6    1   6    7    8

Dihedrals

1    1   1    2    3    4
2    1   2    3    4    5
3    1   3    4    5    6
4    1   4    5    6    7
5    1   5    6    7    8
