# LAMMPS input data file     0
2560  atoms
2544 bonds
2528 angles
2512 dihedrals

4     atom types
1     bond types
1     angle types
1     dihedral types
0    50 xlo xhi
0    50 ylo yhi
0    50 zlo zhi

Masses

1          14.02
2          14.02
3          14.02
4          14.02

Atoms

1    1    35   40    7    21
2    1    8   39    7    22
3    1    3   39    8    21
4    1    8   39    9    20
5    1    35   40    9    19
6    1    8   41    10    19
7    1    3   40    11    19
8    1    8   39    12    19
9    1    12   39    13    20
10    1    8   38    14    20
11    1    3   37    14    21
12    1    8   36    14    22
13    1    12   36    15    21
14    1    8   37    16    21
15    1    3   38    16    20
16    1    8   39    16    19
17    1    35   38    16    18
18    1    8   38    17    17
19    1    3   39    17    18
20    1    8   40    17    19
21    1    35   40    18    20
22    1    8   40    17    21
23    1    3   40    18    22
24    1    8   40    19    23
25    1    12   39    19    24
26    1    8   39    18    23
27    1    3   39    17    24
28    1    8   39    16    25
29    1    12   38    15    25
30    1    8   37    14    25
31    1    3   38    14    24
32    1    8   39    14    23
33    1    35   38    15    23
34    1    8   39    16    23
35    1    3   40    16    24
36    1    8   41    16    25
37    1    35   41    17    26
38    1    8   40    18    26
39    1    3   39    18    25
40    1    8   38    18    24
41    1    12   38    19    25
42    1    8   37    20    25
43    1    3   36    20    24
44    1    8   35    20    23
45    1    12   35    19    24
46    1    8   34    19    25
47    1    3   33    18    25
48    1    8   32    17    25
49    1    35   33    17    24
50    1    8   32    18    24
51    1    3   32    19    25
52    1    8   32    20    26
53    1    35   31    20    27
54    1    8   32    21    27
55    1    3   31    22    27
56    1    8   30    23    27
57    1    12   31    23    28
58    1    8   30    24    28
59    1    3   29    23    28
60    1    8   28    22    28
61    1    12   28    23    29
62    1    8   28    24    30
63    1    3   28    23    31
64    1    8   28    22    32
65    1    35   27    22    33
66    1    8   26    23    33
67    1    3   25    23    34
68    1    8   24    23    35
69    1    35   24    22    36
70    1    8   25    21    36
71    1    3   26    22    36
72    1    8   27    23    36
73    1    12   27    24    35
74    1    8   26    25    35
75    1    3   25    25    34
76    1    8   24    25    33
77    1    12   25    25    32
78    1    8   25    24    33
79    1    3   26    24    32
80    1    8   27    24    31
81    1    35   28    25    31
82    1    8   27    25    30
83    1    3   28    26    30
84    1    8   29    27    30
85    1    35   30    28    30
86    1    8   31    27    30
87    1    3   31    26    29
88    1    8   31    25    28
89    1    12   31    24    27
90    1    8   32    24    28
91    1    3   32    25    27
92    1    8   32    26    26
93    1    12   32    25    25
94    1    8   33    25    26
95    1    3   34    26    26
96    1    8   35    27    26
97    1    35   36    27    27
98    1    8   36    26    26
99    1    3   35    26    27
100    1    8   34    26    28
101    1    35   34    27    27
102    1    8   34    28    28
103    1    3   33    28    27
104    1    8   32    28    26
105    1    12   32    27    25
106    1    8   32    28    24
107    1    3   33    29    24
108    1    8   34    30    24
109    1    12   33    30    25
110    1    8   34    31    25
111    1    3   33    32    25
112    1    8   32    33    25
113    1    35   33    34    25
114    1    8   33    33    26
115    1    3   33    34    27
116    1    8   33    35    28
117    1    35   34    36    28
118    1    8   35    36    27
119    1    3   36    36    26
120    1    8   37    36    25
121    1    12   38    36    26
122    1    8   39    37    26
123    1    3   40    37    27
124    1    8   41    37    28
125    1    12   40    37    29
126    1    8   39    36    29
127    1    3   40    36    30
128    1    8   41    36    31
129    1    35   40    35    31
130    1    8   40    34    32
131    1    3   40    33    31
132    1    8   40    32    30
133    1    35   41    33    30
134    1    8   42    34    30
135    1    3   43    34    31
136    1    8   44    34    32
137    1    12   44    33    33
138    1    8   43    34    33
139    1    3   42    34    32
140    1    8   41    34    31
141    1    12   41    33    32
142    1    8   40    32    32
143    1    3   39    31    32
144    1    8   38    30    32
145    1    35   37    30    31
146    1    8   38    31    31
147    1    3   38    32    32
148    1    8   38    33    33
149    1    35   38    32    34
150    1    8   39    31    34
151    1    3   39    30    33
152    1    8   39    29    32
153    1    12   38    29    31
154    1    8   37    29    30
155    1    3   37    28    31
156    1    8   37    27    32
157    1    12   38    28    32
158    1    8   39    28    33
159    1    3   40    29    33
160    1    8   41    30    33
161    2    35   20    13    21
162    2    8   21    13    22
163    2    3   22    13    21
164    2    8   23    13    20
165    2    35   24    13    19
166    2    8   25    13    18
167    2    3   26    12    18
168    2    8   27    11    18
169    2    12   26    11    17
170    2    8   27    12    17
171    2    3   28    12    16
172    2    8   29    12    15
173    2    12   30    11    15
174    2    8   31    12    15
175    2    3   32    12    16
176    2    8   33    12    17
177    2    35   32    13    17
178    2    8   33    13    16
179    2    3   34    13    15
180    2    8   35    13    14
181    2    35   36    12    14
182    2    8   37    11    14
183    2    3   38    11    13
184    2    8   39    11    12
185    2    12   39    12    11
186    2    8   39    13    10
187    2    3   38    12    10
188    2    8   37    11    10
189    2    12   37    12    11
190    2    8   38    13    11
191    2    3   38    14    10
192    2    8   38    15    9
193    2    35   39    15    8
194    2    8   38    15    7
195    2    3   39    15    6
196    2    8   40    15    5
197    2    35   41    14    5
198    2    8   40    14    4
199    2    3   39    14    3
200    2    8   38    14    2
201    2    12   38    13    3
202    2    8   39    13    4
203    2    3   38    14    4
204    2    8   37    15    4
205    2    12   37    14    5
206    2    8   36    14    6
207    2    3   37    14    7
208    2    8   38    14    8
209    2    35   37    14    9
210    2    8   38    13    9
211    2    3   39    13    8
212    2    8   40    13    7
213    2    35   39    12    7
214    2    8   40    12    6
215    2    3   40    11    7
216    2    8   40    10    8
217    2    12   39    10    9
218    2    8   38    9    9
219    2    3   39    9    10
220    2    8   40    9    11
221    2    12   40    8    10
222    2    8   39    8    11
223    2    3   39    7    10
224    2    8   39    6    9
225    2    35   40    6    8
226    2    8   40    7    9
227    2    3   41    6    9
228    2    8   42    5    9
229    2    35   43    6    9
230    2    8   43    7    10
231    2    3   42    6    10
232    2    8   41    5    10
233    2    12   42    4    10
234    2    8   43    5    10
235    2    3   42    5    11
236    2    8   41    5    12
237    2    12   41    4    13
238    2    8   41    3    14
239    2    3   42    3    13
240    2    8   43    3    12
241    2    35   43    4    11
242    2    8   43    5    12
243    2    3   44    6    12
244    2    8   45    7    12
245    2    35   44    7    11
246    2    8   45    7    10
247    2    3   46    7    9
248    2    8   47    7    8
249    2    12   46    6    8
250    2    8   46    5    9
251    2    3   45    5    8
252    2    8   44    5    7
253    2    12   44    6    6
254    2    8   45    6    5
255    2    3   45    5    6
256    2    8   45    4    7
257    2    35   44    4    8
258    2    8   43    3    8
259    2    3   42    3    9
260    2    8   41    3    10
261    2    35   40    3    9
262    2    8   39    4    9
263    2    3   40    4    10
264    2    8   41    4    11
265    2    12   40    4    12
266    2    8   39    4    13
267    2    3   39    3    12
268    2    8   39    2    11
269    2    12   40    2    10
270    2    8   39    2    9
271    2    3   40    1    9
272    2    8   41    0    9
273    2    35   40    0    10
274    2    8   40    1    11
275    2    3   40    0    12
276    2    8   40    -1    13
277    2    35   40    -2    12
278    2    8   40    -1    11
279    2    3   40    -2    10
280    2    8   40    -3    9
281    2    12   41    -3    8
282    2    8   42    -4    8
283    2    3   43    -3    8
284    2    8   44    -2    8
285    2    12   44    -1    9
286    2    8   45    -1    10
287    2    3   46    -1    11
288    2    8   47    -1    12
289    2    35   47    0    13
290    2    8   48    0    14
291    2    3   49    -1    14
292    2    8   50    -2    14
293    2    35   50    -1    15
294    2    8   49    -2    15
295    2    3   48    -2    16
296    2    8   47    -2    17
297    2    12   46    -2    18
298    2    8   46    -1    17
299    2    3   45    -1    16
300    2    8   44    -1    15
301    2    12   45    0    15
302    2    8   46    0    16
303    2    3   46    1    17
304    2    8   46    2    18
305    2    35   45    2    19
306    2    8   46    2    20
307    2    3   46    3    19
308    2    8   46    4    18
309    2    35   45    4    17
310    2    8   45    3    16
311    2    3   45    2    17
312    2    8   45    1    18
313    2    12   44    0    18
314    2    8   43    0    17
315    2    3   44    -1    17
316    2    8   45    -2    17
317    2    12   44    -2    16
318    2    8   43    -1    16
319    2    3   42    0    16
320    2    8   41    1    16
321    3    35   42    44    22
322    3    8   42    43    23
323    3    3   43    43    22
324    3    8   44    43    21
325    3    35   44    42    22
326    3    8   45    43    22
327    3    3   45    42    21
328    3    8   45    41    20
329    3    12   46    41    21
330    3    8   45    40    21
331    3    3   44    39    21
332    3    8   43    38    21
333    3    12   43    37    20
334    3    8   42    37    19
335    3    3   41    36    19
336    3    8   40    35    19
337    3    35   41    35    18
338    3    8   40    35    17
339    3    3   41    34    17
340    3    8   42    33    17
341    3    35   41    33    18
342    3    8   42    33    19
343    3    3   43    34    19
344    3    8   44    35    19
345    3    12   44    36    18
346    3    8   45    36    17
347    3    3   46    36    18
348    3    8   47    36    19
349    3    12   47    37    18
350    3    8   48    37    17
351    3    3   49    37    16
352    3    8   50    37    15
353    3    35   50    36    16
354    3    8   51    35    16
355    3    3   51    36    15
356    3    8   51    37    14
357    3    35   51    36    13
358    3    8   52    35    13
359    3    3   53    34    13
360    3    8   54    33    13
361    3    12   53    33    12
362    3    8   53    34    11
363    3    3   54    35    11
364    3    8   55    36    11
365    3    12   56    36    12
366    3    8   55    37    12
367    3    3   54    37    11
368    3    8   53    37    10
369    3    35   52    38    10
370    3    8   51    39    10
371    3    3   51    40    9
372    3    8   51    41    8
373    3    35   52    40    8
374    3    8   51    39    8
375    3    3   50    38    8
376    3    8   49    37    8
377    3    12   49    36    9
378    3    8   49    37    10
379    3    3   48    38    10
380    3    8   47    39    10
381    3    12   48    39    11
382    3    8   49    40    11
383    3    3   49    39    10
384    3    8   49    38    9
385    3    35   48    39    9
386    3    8   49    40    9
387    3    3   48    40    8
388    3    8   47    40    7
389    3    35   46    41    7
390    3    8   45    40    7
391    3    3   46    40    6
392    3    8   47    40    5
393    3    12   48    40    6
394    3    8   47    39    6
395    3    3   48    39    7
396    3    8   49    39    8
397    3    12   49    38    7
398    3    8   50    39    7
399    3    3   49    39    6
400    3    8   48    39    5
401    3    35   48    38    6
402    3    8   49    37    6
403    3    3   48    37    5
404    3    8   47    37    4
405    3    35   47    38    5
406    3    8   47    37    6
407    3    3   46    37    7
408    3    8   45    37    8
409    3    12   44    37    7
410    3    8   44    38    6
411    3    3   43    38    7
412    3    8   42    38    8
413    3    12   42    39    7
414    3    8   43    39    6
415    3    3   43    38    5
416    3    8   43    37    4
417    3    35   42    36    4
418    3    8   42    35    5
419    3    3   41    34    5
420    3    8   40    33    5
421    3    35   40    32    4
422    3    8   41    32    3
423    3    3   42    32    4
424    3    8   43    32    5
425    3    12   42    33    5
426    3    8   41    33    4
427    3    3   42    33    3
428    3    8   43    33    2
429    3    12   44    33    3
430    3    8   44    32    2
431    3    3   45    31    2
432    3    8   46    30    2
433    3    35   45    30    3
434    3    8   46    29    3
435    3    3   46    28    2
436    3    8   46    27    1
437    3    35   45    26    1
438    3    8   45    25    0
439    3    3   44    24    0
440    3    8   43    23    0
441    3    12   44    23    -1
442    3    8   43    24    -1
443    3    3   44    25    -1
444    3    8   45    26    -1
445    3    12   44    26    0
446    3    8   44    27    -1
447    3    3   44    28    -2
448    3    8   44    29    -3
449    3    35   45    28    -3
450    3    8   45    27    -4
451    3    3   46    27    -3
452    3    8   47    27    -2
453    3    35   46    27    -1
454    3    8   46    26    0
455    3    3   47    27    0
456    3    8   48    28    0
457    3    12   48    27    -1
458    3    8   48    26    0
459    3    3   47    25    0
460    3    8   46    24    0
461    3    12   47    24    -1
462    3    8   48    24    -2
463    3    3   48    23    -3
464    3    8   48    22    -4
465    3    35   47    22    -5
466    3    8   48    23    -5
467    3    3   49    22    -5
468    3    8   50    21    -5
469    3    35   50    22    -4
470    3    8   49    21    -4
471    3    3   50    21    -3
472    3    8   51    21    -2
473    3    12   52    22    -2
474    3    8   51    22    -1
475    3    3   51    23    0
476    3    8   51    24    1
477    3    12   52    25    1
478    3    8   53    25    2
479    3    3   53    24    1
480    3    8   53    23    0
481    4    35   28    43    21
482    4    8   27    43    22
483    4    3   26    43    21
484    4    8   25    43    20
485    4    35   25    44    21
486    4    8   24    44    20
487    4    3   24    43    19
488    4    8   24    42    18
489    4    12   24    41    17
490    4    8   25    42    17
491    4    3   25    43    16
492    4    8   25    44    15
493    4    12   26    44    16
494    4    8   26    43    15
495    4    3   25    42    15
496    4    8   24    41    15
497    4    35   23    42    15
498    4    8   22    41    15
499    4    3   22    40    16
500    4    8   22    39    17
501    4    35   23    39    18
502    4    8   22    39    19
503    4    3   23    39    20
504    4    8   24    39    21
505    4    12   24    38    20
506    4    8   25    38    19
507    4    3   24    37    19
508    4    8   23    36    19
509    4    12   22    37    19
510    4    8   21    36    19
511    4    3   20    37    19
512    4    8   19    38    19
513    4    35   18    38    20
514    4    8   17    39    20
515    4    3   16    40    20
516    4    8   15    41    20
517    4    35   14    41    19
518    4    8   13    42    19
519    4    3   12    42    20
520    4    8   11    42    21
521    4    12   12    42    22
522    4    8   12    43    23
523    4    3   11    43    22
524    4    8   10    43    21
525    4    12   11    44    21
526    4    8   10    44    20
527    4    3   10    45    19
528    4    8   10    46    18
529    4    35   10    47    17
530    4    8   11    47    16
531    4    3   10    48    16
532    4    8   9    49    16
533    4    35   10    50    16
534    4    8   10    49    17
535    4    3   9    49    18
536    4    8   8    49    19
537    4    12   8    50    18
538    4    8   7    51    18
539    4    3   8    51    19
540    4    8   9    51    20
541    4    12   9    52    21
542    4    8   9    53    20
543    4    3   8    52    20
544    4    8   7    51    20
545    4    35   8    50    20
546    4    8   7    49    20
547    4    3   6    49    21
548    4    8   5    49    22
549    4    35   5    48    21
550    4    8   5    49    20
551    4    3   4    48    20
552    4    8   3    47    20
553    4    12   3    48    21
554    4    8   4    47    21
555    4    3   5    46    21
556    4    8   6    45    21
557    4    12   7    46    21
558    4    8   7    47    22
559    4    3   8    46    22
560    4    8   9    45    22
561    4    35   10    46    22
562    4    8   9    47    22
563    4    3   8    47    23
564    4    8   7    47    24
565    4    35   7    46    25
566    4    8   6    46    26
567    4    3   5    45    26
568    4    8   4    44    26
569    4    12   5    43    26
570    4    8   4    43    25
571    4    3   4    44    24
572    4    8   4    45    23
573    4    12   3    45    22
574    4    8   4    46    22
575    4    3   4    45    21
576    4    8   4    44    20
577    4    35   5    44    21
578    4    8   5    43    22
579    4    3   6    43    21
580    4    8   7    43    20
581    4    35   8    42    20
582    4    8   8    41    21
583    4    3   8    40    22
584    4    8   8    39    23
585    4    12   7    40    23
586    4    8   7    41    22
587    4    3   6    40    22
588    4    8   5    39    22
589    4    12   6    39    23
590    4    8   7    39    22
591    4    3   7    38    23
592    4    8   7    37    24
593    4    35   6    36    24
594    4    8   7    35    24
595    4    3   8    35    25
596    4    8   9    35    26
597    4    35   9    36    27
598    4    8   8    35    27
599    4    3   7    34    27
600    4    8   6    33    27
601    4    12   6    34    26
602    4    8   5    34    27
603    4    3   6    34    28
604    4    8   7    34    29
605    4    12   6    33    29
606    4    8   5    33    30
607    4    3   6    34    30
608    4    8   7    35    30
609    4    35   7    34    31
610    4    8   6    34    32
611    4    3   5    33    32
612    4    8   4    32    32
613    4    35   4    31    33
614    4    8   4    32    34
615    4    3   3    32    35
616    4    8   2    32    36
617    4    12   3    32    37
618    4    8   2    32    38
619    4    3   2    31    37
620    4    8   2    30    36
621    4    12   2    31    35
622    4    8   3    31    34
623    4    3   4    31    35
624    4    8   5    31    36
625    4    35   6    31    35
626    4    8   6    30    34
627    4    3   7    31    34
628    4    8   8    32    34
629    4    35   8    31    33
630    4    8   9    30    33
631    4    3   9    31    32
632    4    8   9    32    31
633    4    12   10    31    31
634    4    8   10    30    30
635    4    3   9    30    31
636    4    8   8    30    32
637    4    12   8    29    33
638    4    8   9    29    34
639    4    3   10    29    33
640    4    8   11    29    32
641    5    35   25    47    12
642    5    8   25    46    13
643    5    3   25    45    12
644    5    8   25    44    11
645    5    35   25    43    10
646    5    8   26    43    9
647    5    3   26    42    8
648    5    8   26    41    7
649    5    12   27    40    7
650    5    8   26    40    6
651    5    3   25    39    6
652    5    8   24    38    6
653    5    12   23    37    6
654    5    8   24    36    6
655    5    3   23    35    6
656    5    8   22    34    6
657    5    35   22    35    5
658    5    8   23    35    4
659    5    3   24    35    5
660    5    8   25    35    6
661    5    35   25    36    5
662    5    8   25    37    6
663    5    3   25    38    5
664    5    8   25    39    4
665    5    12   24    39    5
666    5    8   24    40    6
667    5    3   25    41    6
668    5    8   26    42    6
669    5    12   26    43    7
670    5    8   25    42    7
671    5    3   25    43    8
672    5    8   25    44    9
673    5    35   24    45    9
674    5    8   24    44    10
675    5    3   24    43    11
676    5    8   24    42    12
677    5    35   25    42    13
678    5    8   26    41    13
679    5    3   27    41    14
680    5    8   28    41    15
681    5    12   27    42    15
682    5    8   28    43    15
683    5    3   28    42    14
684    5    8   28    41    13
685    5    12   28    40    12
686    5    8   29    40    13
687    5    3   30    39    13
688    5    8   31    38    13
689    5    35   31    37    14
690    5    8   32    38    14
691    5    3   33    37    14
692    5    8   34    36    14
693    5    35   35    35    14
694    5    8   35    36    13
695    5    3   35    35    12
696    5    8   35    34    11
697    5    12   34    34    12
698    5    8   33    34    11
699    5    3   33    33    10
700    5    8   33    32    9
701    5    12   32    33    9
702    5    8   31    32    9
703    5    3   30    33    9
704    5    8   29    34    9
705    5    35   29    35    8
706    5    8   30    34    8
707    5    3   31    33    8
708    5    8   32    32    8
709    5    35   32    31    9
710    5    8   32    30    8
711    5    3   31    30    7
712    5    8   30    30    6
713    5    12   29    30    7
714    5    8   29    29    8
715    5    3   28    30    8
716    5    8   27    31    8
717    5    12   27    30    7
718    5    8   27    31    6
719    5    3   26    31    5
720    5    8   25    31    4
721    5    35   24    31    3
722    5    8   23    31    2
723    5    3   23    30    3
724    5    8   23    29    4
725    5    35   23    30    5
726    5    8   24    30    4
727    5    3   25    30    3
728    5    8   26    30    2
729    5    12   27    30    3
730    5    8   28    30    2
731    5    3   29    30    1
732    5    8   30    30    0
733    5    12   31    30    1
734    5    8   31    31    2
735    5    3   32    30    2
736    5    8   33    29    2
737    5    35   33    30    1
738    5    8   34    30    2
739    5    3   35    30    1
740    5    8   36    30    0
741    5    35   37    29    0
742    5    8   38    28    0
743    5    3   38    27    -1
744    5    8   38    26    -2
745    5    12   38    25    -3
746    5    8   38    26    -4
747    5    3   39    26    -5
748    5    8   40    26    -6
749    5    12   39    26    -7
750    5    8   39    25    -6
751    5    3   38    25    -5
752    5    8   37    25    -4
753    5    35   36    25    -3
754    5    8   35    24    -3
755    5    3   35    25    -4
756    5    8   35    26    -5
757    5    35   35    25    -6
758    5    8   36    26    -6
759    5    3   35    26    -7
760    5    8   34    26    -8
761    5    12   33    27    -8
762    5    8   34    27    -7
763    5    3   34    28    -6
764    5    8   34    29    -5
765    5    12   35    29    -6
766    5    8   36    29    -5
767    5    3   37    29    -6
768    5    8   38    29    -7
769    5    35   39    28    -7
770    5    8   40    27    -7
771    5    3   41    26    -7
772    5    8   42    25    -7
773    5    35   42    26    -8
774    5    8   42    25    -9
775    5    3   43    25    -10
776    5    8   44    25    -11
777    5    12   45    25    -10
778    5    8   44    26    -10
779    5    3   44    25    -9
780    5    8   44    24    -8
781    5    12   45    25    -8
782    5    8   44    26    -8
783    5    3   45    27    -8
784    5    8   46    28    -8
785    5    35   47    28    -7
786    5    8   48    28    -8
787    5    3   49    27    -8
788    5    8   50    26    -8
789    5    35   49    26    -9
790    5    8   49    27    -10
791    5    3   49    28    -11
792    5    8   49    29    -12
793    5    12   50    28    -12
794    5    8   51    27    -12
795    5    3   51    26    -11
796    5    8   51    25    -10
797    5    12   51    24    -11
798    5    8   50    24    -10
799    5    3   50    23    -11
800    5    8   50    22    -12
801    6    35   17    17    24
802    6    8   16    16    24
803    6    3   15    16    25
804    6    8   14    16    26
805    6    35   14    17    25
806    6    8   15    17    26
807    6    3   16    18    26
808    6    8   17    19    26
809    6    12   18    18    26
810    6    8   18    19    27
811    6    3   19    19    28
812    6    8   20    19    29
813    6    12   21    19    28
814    6    8   21    20    27
815    6    3   20    19    27
816    6    8   19    18    27
817    6    35   20    17    27
818    6    8   20    16    26
819    6    3   21    16    25
820    6    8   22    16    24
821    6    35   22    17    25
822    6    8   23    17    26
823    6    3   24    17    27
824    6    8   25    17    28
825    6    12   25    18    27
826    6    8   25    19    28
827    6    3   26    19    29
828    6    8   27    19    30
829    6    12   28    18    30
830    6    8   29    17    30
831    6    3   30    17    29
832    6    8   31    17    28
833    6    35   31    18    27
834    6    8   31    17    26
835    6    3   30    17    27
836    6    8   29    17    28
837    6    35   29    16    29
838    6    8   28    16    30
839    6    3   29    15    30
840    6    8   30    14    30
841    6    12   29    14    31
842    6    8   28    13    31
843    6    3   27    13    32
844    6    8   26    13    33
845    6    12   27    12    33
846    6    8   26    11    33
847    6    3   25    10    33
848    6    8   24    9    33
849    6    35   24    8    32
850    6    8   24    7    31
851    6    3   23    6    31
852    6    8   22    5    31
853    6    35   22    4    30
854    6    8   21    3    30
855    6    3   21    2    29
856    6    8   21    1    28
857    6    12   21    0    27
858    6    8   21    1    26
859    6    3   22    2    26
860    6    8   23    3    26
861    6    12   24    4    26
862    6    8   25    4    27
863    6    3   24    5    27
864    6    8   23    6    27
865    6    35   22    5    27
866    6    8   23    5    28
867    6    3   22    5    29
868    6    8   21    5    30
869    6    35   20    4    30
870    6    8   21    4    29
871    6    3   21    3    28
872    6    8   21    2    27
873    6    12   20    1    27
874    6    8   19    1    28
875    6    3   19    0    27
876    6    8   19    -1    26
877    6    12   20    0    26
878    6    8   21    -1    26
879    6    3   22    -1    27
880    6    8   23    -1    28
881    6    35   22    0    28
882    6    8   22    1    29
883    6    3   23    1    28
884    6    8   24    1    27
885    6    35   23    1    26
886    6    8   23    0    27
887    6    3   22    0    26
888    6    8   21    0    25
889    6    12   20    0    24
890    6    8   20    1    23
891    6    3   20    2    22
892    6    8   20    3    21
893    6    12   19    3    20
894    6    8   20    2    20
895    6    3   20    1    19
896    6    8   20    0    18
897    6    35   21    -1    18
898    6    8   22    -1    17
899    6    3   21    -2    17
900    6    8   20    -3    17
901    6    35   21    -3    18
902    6    8   22    -3    19
903    6    3   22    -4    20
904    6    8   22    -5    21
905    6    12   22    -6    22
906    6    8   21    -5    22
907    6    3   21    -4    23
908    6    8   21    -3    24
909    6    12   21    -2    23
910    6    8   20    -1    23
911    6    3   19    -1    24
912    6    8   18    -1    25
913    6    35   19    -2    25
914    6    8   18    -2    26
915    6    3   17    -2    27
916    6    8   16    -2    28
917    6    35   15    -2    27
918    6    8   14    -2    26
919    6    3   14    -1    25
920    6    8   14    0    24
921    6    12   13    -1    24
922    6    8   13    -2    23
923    6    3   14    -2    22
924    6    8   15    -2    21
925    6    12   16    -2    22
926    6    8   15    -2    23
927    6    3   15    -3    22
928    6    8   15    -4    21
929    6    35   16    -3    21
930    6    8   16    -2    20
931    6    3   17    -1    20
932    6    8   18    0    20
933    6    35   19    0    19
934    6    8   19    -1    20
935    6    3   20    0    20
936    6    8   21    1    20
937    6    12   21    2    19
938    6    8   22    2    18
939    6    3   22    3    19
940    6    8   22    4    20
941    6    12   22    5    21
942    6    8   23    5    20
943    6    3   22    6    20
944    6    8   21    7    20
945    6    35   21    8    21
946    6    8   21    9    22
947    6    3   22    8    22
948    6    8   23    7    22
949    6    35   23    8    23
950    6    8   23    7    24
951    6    3   22    8    24
952    6    8   21    9    24
953    6    12   22    9    25
954    6    8   23    9    24
955    6    3   22    10    24
956    6    8   21    11    24
957    6    12   22    11    25
958    6    8   23    11    24
959    6    3   23    10    25
960    6    8   23    9    26
961    7    35   14    9    37
962    7    8   14    10    36
963    7    3   13    10    35
964    7    8   12    10    34
965    7    35   12    9    35
966    7    8   13    8    35
967    7    3   12    7    35
968    7    8   11    6    35